# vtk DataFile Version 4.2
vtk output
ASCII
DATASET POLYDATA
POINTS 8 float
-0.5 -0.5 -0.5 -0.5 -0.5 0.5 -0.5 0.5 -0.5 
-0.5 0.5 0.5 0.5 -0.5 -0.5 0.5 -0.5 0.5 
0.5 0.5 -0.5 0.5 0.5 0.5 
POLYGONS 6 30
4 0 1 5 4 
4 0 4 6 2 
4 2 3 1 0 
4 1 3 7 5 
4 4 5 7 6 
4 3 2 6 7 

POINT_DATA 8
SCALARS scalars float
LOOKUP_TABLE default
0 1 2 3 4 5 6 7 
