# vtk DataFile Version 4.2
vtk output
ASCII
DATASET POLYDATA
POINTS 8 float
-0.5 -0.5 -0.5 -0.5 -0.5 0.5 -0.5 0.5 -0.5 
-0.5 0.5 0.5 0.5 -0.5 -0.5 0.5 -0.5 0.5 
0.5 0.5 -0.5 0.5 0.5 0.5 
TRIANGLE_STRIPS 1 15
14 3 7 1 5 4 7 6 3 2 1 0 4 2 6 

POINT_DATA 8
SCALARS scalars float
LOOKUP_TABLE default
0 1 2 3 4 5 6 7 
